# vtk DataFile Version 3.0
VTK from Matlab
ASCII
DATASET UNSTRUCTURED_GRID
POINTS 25 float
0  0  0
0.25           0           0
0.5           0           0
0.75           0           0
1  0  0
0        0.25           0
0.25        0.25           0
0.5        0.25           0
0.75        0.25           0
1        0.25           0
0         0.5           0
0.25         0.5           0
0.5         0.5           0
0.75         0.5           0
1         0.5           0
0        0.75           0
0.25        0.75           0
0.5        0.75           0
0.75        0.75           0
1        0.75           0
0  1  0
0.25           1           0
0.5           1           0
0.75           1           0
1  1  0
CELLS 16 80
4	0  1  6  5
4	1  2  7  6
4	2  3  8  7
4	3  4  9  8
4	5   6  11  10
4	6   7  12  11
4	7   8  13  12
4	8   9  14  13
4	10  11  16  15
4	11  12  17  16
4	12  13  18  17
4	13  14  19  18
4	15  16  21  20
4	16  17  22  21
4	17  18  23  22
4	18  19  24  23
CELL_TYPES 16
9
9
9
9
9
9
9
9
9
9
9
9
9
9
9
9
POINT_DATA 25
FIELD Output 22
DISPLACEMENT_Z1 3 25 float
0	0	0
0	0	0
0	0	0
0	0	0
0	0	0
0	0	0
0	0	0.00057313
0	0	0.00028192
0	0	0.00057313
0	0	0
0	0	0
0	0	0.00028192
0	0	0.0028175
0	0	0.00028192
0	0	0
0	0	0
0	0	0.00057313
0	0	0.00028192
0	0	0.00057313
0	0	0
0	0	0
0	0	0
0	0	0
0	0	0
0	0	0
DISPLACEMENT_Z2 3 25 float
0	0	0
0	0	0
0	0	0
0	0	0
0	0	0
0	0	0
0	0	0.0022471
0	0	0.0029318
0	0	0.0022471
0	0	0
0	0	0
0	0	0.0029318
0	0	0.0055178
0	0	0.0029318
0	0	0
0	0	0
0	0	0.0022471
0	0	0.0029318
0	0	0.0022471
0	0	0
0	0	0
0	0	0
0	0	0
0	0	0
0	0	0
DISPLACEMENT_Z3 3 25 float
0	0	0
0	0	0
0	0	0
0	0	0
0	0	0
0	0	0
0	0	0.0048581
0	0	0.0067751
0	0	0.0048581
0	0	0
0	0	0
0	0	0.0067751
0	0	0.0097646
0	0	0.0067751
0	0	0
0	0	0
0	0	0.0048581
0	0	0.0067751
0	0	0.0048581
0	0	0
0	0	0
0	0	0
0	0	0
0	0	0
0	0	0
DISPLACEMENT_Z4 3 25 float
0	0	0
0	0	0
0	0	0
0	0	0
0	0	0
0	0	0
0	0	0.007842
0	0	0.010503
0	0	0.007842
0	0	0
0	0	0
0	0	0.010503
0	0	0.017401
0	0	0.010503
0	0	0
0	0	0
0	0	0.007842
0	0	0.010503
0	0	0.007842
0	0	0
0	0	0
0	0	0
0	0	0
0	0	0
0	0	0
DISPLACEMENT_Z5 3 25 float
0	0	0
0	0	0
0	0	0
0	0	0
0	0	0
0	0	0
0	0	0.010853
0	0	0.015422
0	0	0.010853
0	0	0
0	0	0
0	0	0.015422
0	0	0.021822
0	0	0.015422
0	0	0
0	0	0
0	0	0.010853
0	0	0.015422
0	0	0.010853
0	0	0
0	0	0
0	0	0
0	0	0
0	0	0
0	0	0
DISPLACEMENT_Z6 3 25 float
0	0	0
0	0	0
0	0	0
0	0	0
0	0	0
0	0	0
0	0	0.013603
0	0	0.018896
0	0	0.013603
0	0	0
0	0	0
0	0	0.018896
0	0	0.027496
0	0	0.018896
0	0	0
0	0	0
0	0	0.013603
0	0	0.018896
0	0	0.013603
0	0	0
0	0	0
0	0	0
0	0	0
0	0	0
0	0	0
DISPLACEMENT_Z7 3 25 float
0	0	0
0	0	0
0	0	0
0	0	0
0	0	0
0	0	0
0	0	0.015308
0	0	0.021254
0	0	0.015308
0	0	0
0	0	0
0	0	0.021254
0	0	0.031949
0	0	0.021254
0	0	0
0	0	0
0	0	0.015308
0	0	0.021254
0	0	0.015308
0	0	0
0	0	0
0	0	0
0	0	0
0	0	0
0	0	0
DISPLACEMENT_Z8 3 25 float
0	0	0
0	0	0
0	0	0
0	0	0
0	0	0
0	0	0
0	0	0.016057
0	0	0.0229
0	0	0.016057
0	0	0
0	0	0
0	0	0.0229
0	0	0.031695
0	0	0.0229
0	0	0
0	0	0
0	0	0.016057
0	0	0.0229
0	0	0.016057
0	0	0
0	0	0
0	0	0
0	0	0
0	0	0
0	0	0
DISPLACEMENT_Z9 3 25 float
0	0	0
0	0	0
0	0	0
0	0	0
0	0	0
0	0	0
0	0	0.015743
0	0	0.021644
0	0	0.015743
0	0	0
0	0	0
0	0	0.021644
0	0	0.032309
0	0	0.021644
0	0	0
0	0	0
0	0	0.015743
0	0	0.021644
0	0	0.015743
0	0	0
0	0	0
0	0	0
0	0	0
0	0	0
0	0	0
DISPLACEMENT_Z10 3 25 float
0	0	0
0	0	0
0	0	0
0	0	0
0	0	0
0	0	0
0	0	0.013971
0	0	0.019687
0	0	0.013971
0	0	0
0	0	0
0	0	0.019687
0	0	0.028849
0	0	0.019687
0	0	0
0	0	0
0	0	0.013971
0	0	0.019687
0	0	0.013971
0	0	0
0	0	0
0	0	0
0	0	0
0	0	0
0	0	0
DISPLACEMENT_Z11 3 25 float
0	0	0
0	0	0
0	0	0
0	0	0
0	0	0
0	0	0
0	0	0.011632
0	0	0.016445
0	0	0.011632
0	0	0
0	0	0
0	0	0.016445
0	0	0.023045
0	0	0.016445
0	0	0
0	0	0
0	0	0.011632
0	0	0.016445
0	0	0.011632
0	0	0
0	0	0
0	0	0
0	0	0
0	0	0
0	0	0
ROTATION_X1 3 25 float
-0.0070463	0	0
0.0072767	0	0
5.8905e-14	0	0
-0.0072767	0	0
0.0070463	0	0
0.00013383	0	0
-0.0049488	0	0
-1.2127e-13	0	0
0.0049488	0	0
-0.00013383	0	0
0.010977	0	0
-0.013003	0	0
1.0379e-13	0	0
0.013003	0	0
-0.010977	0	0
0.00013383	0	0
-0.0049488	0	0
-9.2925e-14	0	0
0.0049488	0	0
-0.00013383	0	0
-0.0070463	0	0
0.0072767	0	0
1.033e-13	0	0
-0.0072767	0	0
0.0070463	0	0
ROTATION_X2 3 25 float
-0.0056976	0	0
0.002272	0	0
-2.2684e-13	0	0
-0.002272	0	0
0.0056976	0	0
-0.0068009	0	0
-0.0077503	0	0
1.4048e-13	0	0
0.0077503	0	0
0.0068009	0	0
-0.0084667	0	0
-0.018413	0	0
-2.4491e-14	0	0
0.018413	0	0
0.0084667	0	0
-0.0068009	0	0
-0.0077503	0	0
3.3141e-14	0	0
0.0077503	0	0
0.0068009	0	0
-0.0056976	0	0
0.002272	0	0
1.5924e-14	0	0
-0.002272	0	0
0.0056976	0	0
ROTATION_X3 3 25 float
-0.0057315	0	0
-0.0034423	0	0
2.2087e-13	0	0
0.0034423	0	0
0.0057315	0	0
-0.017797	0	0
-0.011894	0	0
7.2345e-14	0	0
0.011894	0	0
0.017797	0	0
-0.036017	0	0
-0.027357	0	0
-3.2631e-13	0	0
0.027357	0	0
0.036017	0	0
-0.017797	0	0
-0.011894	0	0
1.2784e-13	0	0
0.011894	0	0
0.017797	0	0
-0.0057315	0	0
-0.0034423	0	0
-9.6463e-14	0	0
0.0034423	0	0
0.0057315	0	0
ROTATION_X4 3 25 float
-0.014974	0	0
0.0014776	0	0
1.7772e-13	0	0
-0.0014776	0	0
0.014974	0	0
-0.026468	0	0
-0.022771	0	0
-2.4153e-13	0	0
0.022771	0	0
0.026468	0	0
-0.043826	0	0
-0.053697	0	0
3.3018e-13	0	0
0.053697	0	0
0.043826	0	0
-0.026468	0	0
-0.022771	0	0
-8.9247e-15	0	0
0.022771	0	0
0.026468	0	0
-0.014974	0	0
0.0014776	0	0
4.2948e-14	0	0
-0.0014776	0	0
0.014974	0	0
ROTATION_X5 3 25 float
-0.010763	0	0
-0.0096512	0	0
1.8998e-13	0	0
0.0096512	0	0
0.010763	0	0
-0.039516	0	0
-0.026898	0	0
2.2528e-13	0	0
0.026898	0	0
0.039516	0	0
-0.082936	0	0
-0.06085	0	0
2.3214e-14	0	0
0.06085	0	0
0.082936	0	0
-0.039516	0	0
-0.026898	0	0
-7.7969e-15	0	0
0.026898	0	0
0.039516	0	0
-0.010763	0	0
-0.0096512	0	0
6.032e-14	0	0
0.0096512	0	0
0.010763	0	0
ROTATION_X6 3 25 float
-0.016831	0	0
-0.008742	0	0
-2.0779e-13	0	0
0.008742	0	0
0.016831	0	0
-0.049649	0	0
-0.033604	0	0
3.713e-13	0	0
0.033604	0	0
0.049649	0	0
-0.099208	0	0
-0.077532	0	0
4.6738e-13	0	0
0.077532	0	0
0.099208	0	0
-0.049649	0	0
-0.033604	0	0
1.859e-13	0	0
0.033604	0	0
0.049649	0	0
-0.016831	0	0
-0.008742	0	0
-1.1199e-13	0	0
0.008742	0	0
0.016831	0	0
ROTATION_X7 3 25 float
-0.020619	0	0
-0.007286	0	0
3.2967e-13	0	0
0.007286	0	0
0.020619	0	0
-0.054274	0	0
-0.040286	0	0
-2.4645e-13	0	0
0.040286	0	0
0.054274	0	0
-0.1051	0	0
-0.092838	0	0
7.6791e-13	0	0
0.092838	0	0
0.1051	0	0
-0.054274	0	0
-0.040286	0	0
-4.2019e-14	0	0
0.040286	0	0
0.054274	0	0
-0.020619	0	0
-0.007286	0	0
4.0143e-13	0	0
0.007286	0	0
0.020619	0	0
ROTATION_X8 3 25 float
-0.014379	0	0
-0.016313	0	0
2.3278e-13	0	0
0.016313	0	0
0.014379	0	0
-0.059333	0	0
-0.038433	0	0
5.0824e-14	0	0
0.038433	0	0
0.059333	0	0
-0.12722	0	0
-0.08667	0	0
1.1484e-13	0	0
0.08667	0	0
0.12722	0	0
-0.059333	0	0
-0.038433	0	0
1.5973e-13	0	0
0.038433	0	0
0.059333	0	0
-0.014379	0	0
-0.016313	0	0
-4.8331e-14	0	0
0.016313	0	0
0.014379	0	0
ROTATION_X9 3 25 float
-0.021875	0	0
-0.0073558	0	0
-1.7053e-13	0	0
0.0073558	0	0
0.021875	0	0
-0.056866	0	0
-0.03985	0	0
-1.8089e-13	0	0
0.03985	0	0
0.056866	0	0
-0.10971	0	0
-0.092673	0	0
-1.6611e-13	0	0
0.092673	0	0
0.10971	0	0
-0.056866	0	0
-0.03985	0	0
1.178e-13	0	0
0.03985	0	0
0.056866	0	0
-0.021875	0	0
-0.0073558	0	0
-2.5303e-13	0	0
0.0073558	0	0
0.021875	0	0
ROTATION_X10 3 25 float
-0.016253	0	0
-0.0094092	0	0
-1.1938e-13	0	0
0.0094092	0	0
0.016253	0	0
-0.049795	0	0
-0.036314	0	0
-6.5606e-14	0	0
0.036314	0	0
0.049795	0	0
-0.10045	0	0
-0.082705	0	0
-2.6129e-13	0	0
0.082705	0	0
0.10045	0	0
-0.049795	0	0
-0.036314	0	0
-7.4698e-14	0	0
0.036314	0	0
0.049795	0	0
-0.016253	0	0
-0.0094092	0	0
3.3507e-14	0	0
0.0094092	0	0
0.016253	0	0
ROTATION_X11 3 25 float
-0.011582	0	0
-0.010614	0	0
-2.4137e-14	0	0
0.010614	0	0
0.011582	0	0
-0.042961	0	0
-0.027895	0	0
9.2517e-14	0	0
0.027895	0	0
0.042961	0	0
-0.090348	0	0
-0.063407	0	0
-3.4961e-13	0	0
0.063407	0	0
0.090348	0	0
-0.042961	0	0
-0.027895	0	0
7.741e-14	0	0
0.027895	0	0
0.042961	0	0
-0.011582	0	0
-0.010614	0	0
-1.1356e-13	0	0
0.010614	0	0
0.011582	0	0
